============================== echo of input deck ==============================
echo

start molecule

title "Title"
charge -1

geometry units angstroms print xyz autosym
 I                     0.00000000     0.00000000     1.88716539
 Cl                    0.00000000     0.00000000    -3.03660307
 C                     0.00000000     0.00000000    -1.11283396
 H                     0.74342354     0.74342354    -0.83714093
 H                    -1.01553544     0.27211190    -0.83714093
 H                     0.27211190    -1.01553544    -0.83714093
end

basis
  * library def2-svpd
end

ecp
 I library "def2-ecp"
end

dft
xc b3lyp
mult 1
end

driver
default
maxiter 99
end

python
from nwgeom import *
geom = '''
    geometry noprint adjust
        zcoord
            bond  1 3   3.0 ci  constant
            bond  2 3   %f ccl  constant
        end
    end
'''
x0=3.000
y0=1.801
xmax=2.171
ymax=3.000
npts=11
ymin = y0 - (ymax-y0)/npts
results = scan_input(geom, \
[ymin],
[ymax],
npts, 'dft', task_optimize)
fp=open("sn1_ccl.dat","w")
for i in range(0,len(results)):
    fp.write(f'{results[i][0][0]} {results[i][1][0]} \n')
fp.close()
end

task python
================================================================================

         Total DFT energy =     -797.863630440414
@ Step       Energy      Delta E   Gmax     Grms     Xrms     Xmax   Walltime
@ ---- ---------------- -------- -------- -------- -------- -------- --------
@    0    -797.86363044  0.0D+00  0.00242  0.00183  0.00000  0.00000      9.6
         Total DFT energy =     -797.864479958970
         Total DFT energy =     -797.864500447262
@    1    -797.86450045 -8.7D-04  0.00285  0.00132  0.02888  0.04434     19.6
         Total DFT energy =     -797.864534954277
         Total DFT energy =   -797.864534954277
@    2    -797.86453495 -3.5D-05  0.00025  0.00011  0.00289  0.00539     27.0
         Total DFT energy =     -797.864535193927
         Total DFT energy =   -797.864535193927
@    3    -797.86453519 -2.4D-07  0.00002  0.00001  0.00029  0.00047     32.8
@    3    -797.86453519 -2.4D-07  0.00002  0.00001  0.00029  0.00047     32.8
         Total DFT energy =     -797.866591744586
@ Step       Energy      Delta E   Gmax     Grms     Xrms     Xmax   Walltime
@ ---- ---------------- -------- -------- -------- -------- -------- --------
@    0    -797.86659174  0.0D+00  0.00181  0.00142  0.00000  0.00000     40.7
         Total DFT energy =     -797.867218310879
         Total DFT energy =   -797.867218310879
@    1    -797.86721831 -6.3D-04  0.00172  0.00080  0.02573  0.04326     48.7
         Total DFT energy =     -797.867231298913
         Total DFT energy =   -797.867231298913
@    2    -797.86723130 -1.3D-05  0.00002  0.00001  0.00235  0.00524     55.5
         Total DFT energy =     -797.867231314782
         Total DFT energy =   -797.867231314782
@    3    -797.86723131 -1.6D-08  0.00000  0.00000  0.00008  0.00011     61.3
@    3    -797.86723131 -1.6D-08  0.00000  0.00000  0.00008  0.00011     61.3
         Total DFT energy =     -797.865667450336
@ Step       Energy      Delta E   Gmax     Grms     Xrms     Xmax   Walltime
@ ---- ---------------- -------- -------- -------- -------- -------- --------
@    0    -797.86566745  0.0D+00  0.00177  0.00134  0.00000  0.00000     69.1
         Total DFT energy =     -797.866240811344
         Total DFT energy =     -797.866264789963
@    1    -797.86626479 -6.0D-04  0.00042  0.00019  0.02782  0.04659     79.4
         Total DFT energy =     -797.866265673720
         Total DFT energy =   -797.866265673720
@    2    -797.86626567 -8.8D-07  0.00003  0.00002  0.00066  0.00096     86.3
@    2    -797.86626567 -8.8D-07  0.00003  0.00002  0.00066  0.00096     86.3
         Total DFT energy =     -797.863096637979
@ Step       Energy      Delta E   Gmax     Grms     Xrms     Xmax   Walltime
@ ---- ---------------- -------- -------- -------- -------- -------- --------
@    0    -797.86309664  0.0D+00  0.00171  0.00126  0.00000  0.00000     94.0
         Total DFT energy =     -797.863643969574
         Total DFT energy =   -797.863643969574
@    1    -797.86364397 -5.5D-04  0.00009  0.00006  0.02666  0.04514    101.7
         Total DFT energy =     -797.863644710477
         Total DFT energy =   -797.863644710477
@    2    -797.86364471 -7.4D-07  0.00000  0.00000  0.00101  0.00175    108.3
@    2    -797.86364471 -7.4D-07  0.00000  0.00000  0.00101  0.00175    108.3
         Total DFT energy =     -797.859916921211
@ Step       Energy      Delta E   Gmax     Grms     Xrms     Xmax   Walltime
@ ---- ---------------- -------- -------- -------- -------- -------- --------
@    0    -797.85991692  0.0D+00  0.00163  0.00116  0.00000  0.00000    115.9
         Total DFT energy =     -797.860388737598
         Total DFT energy =     -797.860392097217
@    1    -797.86039210 -4.8D-04  0.00003  0.00003  0.02722  0.04656    126.4
         Total DFT energy =     -797.860392185795
         Total DFT energy =   -797.860392185795
@    2    -797.86039219 -8.9D-08  0.00001  0.00000  0.00052  0.00089    132.5
@    2    -797.86039219 -8.9D-08  0.00001  0.00000  0.00052  0.00089    132.5
         Total DFT energy =     -797.856572176874
@ Step       Energy      Delta E   Gmax     Grms     Xrms     Xmax   Walltime
@ ---- ---------------- -------- -------- -------- -------- -------- --------
@    0    -797.85657218  0.0D+00  0.00151  0.00105  0.00000  0.00000    140.1
         Total DFT energy =     -797.856954727100
         Total DFT energy =   -797.856954727100
@    1    -797.85695473 -3.8D-04  0.00023  0.00011  0.02436  0.04191    147.8
         Total DFT energy =     -797.856954986880
         Total DFT energy =   -797.856954986880
@    2    -797.85695499 -2.6D-07  0.00000  0.00000  0.00034  0.00054    153.8
@    2    -797.85695499 -2.6D-07  0.00000  0.00000  0.00034  0.00054    153.8
         Total DFT energy =     -797.853193577975
@ Step       Energy      Delta E   Gmax     Grms     Xrms     Xmax   Walltime
@ ---- ---------------- -------- -------- -------- -------- -------- --------
@    0    -797.85319358  0.0D+00  0.00132  0.00090  0.00000  0.00000    161.2
         Total DFT energy =     -797.853472100418
         Total DFT energy =   -797.853472100418
@    1    -797.85347210 -2.8D-04  0.00029  0.00014  0.02050  0.03538    168.7
         Total DFT energy =     -797.853472799366
         Total DFT energy =   -797.853472799366
@    2    -797.85347280 -7.0D-07  0.00002  0.00001  0.00084  0.00138    175.2
@    2    -797.85347280 -7.0D-07  0.00002  0.00001  0.00084  0.00138    175.2
         Total DFT energy =     -797.849789534946
@ Step       Energy      Delta E   Gmax     Grms     Xrms     Xmax   Walltime
@ ---- ---------------- -------- -------- -------- -------- -------- --------
@    0    -797.84978953  0.0D+00  0.00111  0.00075  0.00000  0.00000    182.6
         Total DFT energy =     -797.849978846272
         Total DFT energy =   -797.849978846272
@    1    -797.84997885 -1.9D-04  0.00003  0.00001  0.01750  0.03028    190.0
         Total DFT energy =     -797.849978881612
         Total DFT energy =   -797.849978881612
@    2    -797.84997888 -3.5D-08  0.00003  0.00002  0.00015  0.00026    195.3
@    2    -797.84997888 -3.5D-08  0.00003  0.00002  0.00015  0.00026    195.3
         Total DFT energy =     -797.846364551896
@ Step       Energy      Delta E   Gmax     Grms     Xrms     Xmax   Walltime
@ ---- ---------------- -------- -------- -------- -------- -------- --------
@    0    -797.84636455  0.0D+00  0.00089  0.00061  0.00000  0.00000    202.7
         Total DFT energy =     -797.846454161063
         Total DFT energy =     -797.846466856175
@    1    -797.84646686 -1.0D-04  0.00216  0.00100  0.01228  0.02098    212.2
         Total DFT energy =     -797.846487778365
         Total DFT energy =   -797.846487778365
@    2    -797.84648778 -2.1D-05  0.00015  0.00007  0.00336  0.00574    218.9
         Total DFT energy =     -797.846487878913
         Total DFT energy =   -797.846487878913
@    3    -797.84648788 -1.0D-07  0.00006  0.00003  0.00019  0.00038    224.1
@    3    -797.84648788 -1.0D-07  0.00006  0.00003  0.00019  0.00038    224.1
         Total DFT energy =     -797.842951896884
@ Step       Energy      Delta E   Gmax     Grms     Xrms     Xmax   Walltime
@ ---- ---------------- -------- -------- -------- -------- -------- --------
@    0    -797.84295190  0.0D+00  0.00071  0.00049  0.00000  0.00000    231.4
         Total DFT energy =     -797.843030157322
         Total DFT energy =   -797.843030157322
@    1    -797.84303016 -7.8D-05  0.00071  0.00033  0.01073  0.01855    238.1
         Total DFT energy =     -797.843032315197
         Total DFT energy =   -797.843032315197
@    2    -797.84303232 -2.2D-06  0.00014  0.00006  0.00100  0.00147    244.4
@    2    -797.84303232 -2.2D-06  0.00014  0.00006  0.00100  0.00147    244.4
         Total DFT energy =     -797.839599160654
@ Step       Energy      Delta E   Gmax     Grms     Xrms     Xmax   Walltime
@ ---- ---------------- -------- -------- -------- -------- -------- --------
@    0    -797.83959916  0.0D+00  0.00055  0.00041  0.00000  0.00000    251.5
         Total DFT energy =     -797.839648879218
         Total DFT energy =   -797.839648879218
@    1    -797.83964888 -5.0D-05  0.00002  0.00001  0.00892  0.01545    258.8
         Total DFT energy =     -797.839648860288

                       DFT Final Molecular Orbital Analysis
                       ------------------------------------

 Vector    1  Occ=2.000000D+00  E=-1.013116D+02  Symmetry=a1

 Vector   34  Occ=0.000000D+00  E= 2.104963D-01  Symmetry=e

 Vector   35  Occ=0.000000D+00  E= 2.104963D-01  Symmetry=e

 Vector   36  Occ=0.000000D+00  E= 2.260523D-01  Symmetry=e

 Vector   37  Occ=0.000000D+00  E= 2.260523D-01  Symmetry=e

 Vector   38  Occ=0.000000D+00  E= 2.401414D-01  Symmetry=e

 Vector   39  Occ=0.000000D+00  E= 2.401414D-01  Symmetry=e

 Vector   40  Occ=0.000000D+00  E= 2.560942D-01  Symmetry=a1

 Vector   41  Occ=0.000000D+00  E= 2.715297D-01  Symmetry=e

 Vector   42  Occ=0.000000D+00  E= 2.715297D-01  Symmetry=e

 Vector   43  Occ=0.000000D+00  E= 3.040095D-01  Symmetry=a1

 Vector   44  Occ=0.000000D+00  E= 3.107502D-01  Symmetry=a1

 Vector   45  Occ=0.000000D+00  E= 3.112708D-01  Symmetry=e

 Vector   46  Occ=0.000000D+00  E= 3.112708D-01  Symmetry=e

 Vector   47  Occ=0.000000D+00  E= 3.862450D-01  Symmetry=e

 Vector   48  Occ=0.000000D+00  E= 3.862450D-01  Symmetry=e

 Vector   49  Occ=0.000000D+00  E= 3.863410D-01  Symmetry=a1

 Vector   50  Occ=0.000000D+00  E= 4.098075D-01  Symmetry=e

 Vector   51  Occ=0.000000D+00  E= 4.098075D-01  Symmetry=e

 Vector   52  Occ=0.000000D+00  E= 4.335560D-01  Symmetry=a1

 Vector   53  Occ=0.000000D+00  E= 4.548260D-01  Symmetry=a1

 Vector   54  Occ=0.000000D+00  E= 4.586085D-01  Symmetry=a2

 Vector   55  Occ=0.000000D+00  E= 4.878142D-01  Symmetry=e

 Vector   56  Occ=0.000000D+00  E= 4.878142D-01  Symmetry=e

 Vector   57  Occ=0.000000D+00  E= 4.899081D-01  Symmetry=a1

 Vector   58  Occ=0.000000D+00  E= 5.059882D-01  Symmetry=e

 Vector   59  Occ=0.000000D+00  E= 5.059882D-01  Symmetry=e

 Vector   60  Occ=0.000000D+00  E= 5.221459D-01  Symmetry=a1

 Vector   61  Occ=0.000000D+00  E= 5.519737D-01  Symmetry=a1

 Vector   62  Occ=0.000000D+00  E= 5.574467D-01  Symmetry=e

 Vector   63  Occ=0.000000D+00  E= 5.574467D-01  Symmetry=e

 Vector   64  Occ=0.000000D+00  E= 5.866742D-01  Symmetry=e

 Vector   65  Occ=0.000000D+00  E= 5.866742D-01  Symmetry=e

 Vector   66  Occ=0.000000D+00  E= 6.560325D-01  Symmetry=a1

 Vector   67  Occ=0.000000D+00  E= 6.763527D-01  Symmetry=e

 Vector   68  Occ=0.000000D+00  E= 6.763527D-01  Symmetry=e

 Vector   69  Occ=0.000000D+00  E= 7.575470D-01  Symmetry=e

 Vector   70  Occ=0.000000D+00  E= 7.575470D-01  Symmetry=e

 Vector   71  Occ=0.000000D+00  E= 7.694879D-01  Symmetry=a1

 Vector   72  Occ=0.000000D+00  E= 7.849945D-01  Symmetry=e

 Vector   73  Occ=0.000000D+00  E= 7.849945D-01  Symmetry=e

 Vector   74  Occ=0.000000D+00  E= 7.873176D-01  Symmetry=a1

 Vector   75  Occ=0.000000D+00  E= 8.653731D-01  Symmetry=a1

 Vector   76  Occ=0.000000D+00  E= 1.019169D+00  Symmetry=e

 Vector   77  Occ=0.000000D+00  E= 1.019169D+00  Symmetry=e

 Vector   78  Occ=0.000000D+00  E= 1.072302D+00  Symmetry=a1

 Vector   79  Occ=0.000000D+00  E= 1.119550D+00  Symmetry=a1

 Vector   80  Occ=0.000000D+00  E= 1.134371D+00  Symmetry=e

 Vector   81  Occ=0.000000D+00  E= 1.134371D+00  Symmetry=e

 Vector   82  Occ=0.000000D+00  E= 1.173064D+00  Symmetry=e

 Vector   83  Occ=0.000000D+00  E= 1.173064D+00  Symmetry=e

 Vector   84  Occ=0.000000D+00  E= 1.200508D+00  Symmetry=e

 Vector   85  Occ=0.000000D+00  E= 1.200508D+00  Symmetry=e

 Vector   86  Occ=0.000000D+00  E= 1.229325D+00  Symmetry=a1

 Vector   87  Occ=0.000000D+00  E= 1.245307D+00  Symmetry=e

 Vector   88  Occ=0.000000D+00  E= 1.245307D+00  Symmetry=e

 Vector   89  Occ=0.000000D+00  E= 1.279103D+00  Symmetry=a1

 Vector   90  Occ=0.000000D+00  E= 1.437289D+00  Symmetry=a1

 Vector   91  Occ=0.000000D+00  E= 1.589709D+00  Symmetry=a1

 Vector   92  Occ=0.000000D+00  E= 1.605699D+00  Symmetry=e

 Vector   93  Occ=0.000000D+00  E= 1.605699D+00  Symmetry=e

 Vector   94  Occ=0.000000D+00  E= 1.717205D+00  Symmetry=a2

 Vector   95  Occ=0.000000D+00  E= 1.841486D+00  Symmetry=e

 Vector   96  Occ=0.000000D+00  E= 1.841486D+00  Symmetry=e

 Vector   97  Occ=0.000000D+00  E= 2.029287D+00  Symmetry=a1

 Vector   98  Occ=0.000000D+00  E= 2.064993D+00  Symmetry=a1

 Vector   99  Occ=0.000000D+00  E= 2.130252D+00  Symmetry=a1

 Vector  100  Occ=0.000000D+00  E= 2.369256D+00  Symmetry=e

 Vector  101  Occ=0.000000D+00  E= 2.369256D+00  Symmetry=e

 Vector  102  Occ=0.000000D+00  E= 2.431882D+00  Symmetry=e

 Vector  103  Occ=0.000000D+00  E= 2.431882D+00  Symmetry=e

 Vector  104  Occ=0.000000D+00  E= 3.062790D+00  Symmetry=a1

 Vector  105  Occ=0.000000D+00  E= 3.094991D+00  Symmetry=e

 Vector  106  Occ=0.000000D+00  E= 3.094991D+00  Symmetry=e

 Vector  107  Occ=0.000000D+00  E= 4.144292D+00  Symmetry=a1

 Vector  108  Occ=0.000000D+00  E= 5.370446D+00  Symmetry=a1

 Vector  109  Occ=0.000000D+00  E= 1.710725D+01  Symmetry=a1

 Vector  110  Occ=0.000000D+00  E= 1.894426D+01  Symmetry=e

 Vector  111  Occ=0.000000D+00  E= 1.894426D+01  Symmetry=e

 Vector  112  Occ=0.000000D+00  E= 1.937012D+01  Symmetry=a1

 Vector  113  Occ=0.000000D+00  E= 6.129102D+01  Symmetry=a1

     Multipole analysis of the density
     ---------------------------------

     L   x y z        total         alpha         beta         nuclear
     -   - - -        -----         -----         ----         -------
     0   0 0 0     -1.000000    -26.000000    -26.000000     51.000000

     1   1 0 0     -0.000000     -0.000000     -0.000000     -0.000000
     1   0 1 0      0.000000      0.000000      0.000000      0.000000
     1   0 0 1      3.133978     44.067268     44.067268    -85.000559

     2   2 0 0    -39.934625    -23.113039    -23.113039      6.291454
     2   1 1 0      0.000000      0.000000      0.000000     -0.000000
     2   1 0 1      0.000000     -0.000000     -0.000000      0.000000
     2   0 2 0    -39.934625    -23.113039    -23.113039      6.291454
     2   0 1 1     -0.000000     -0.000000     -0.000000      0.000000

         Total DFT energy =   -797.839648860288
@    2    -797.83964886  1.9D-08  0.00001  0.00001  0.00030  0.00053    264.5
@    2    -797.83964886  1.9D-08  0.00001  0.00001  0.00030  0.00053    264.5

 Output coordinates in angstroms (scale by  1.889725989 to convert to a.u.)

  No.       Tag          Charge          X              Y              Z
 ---- ---------------- ---------- -------------- -------------- --------------
    1 I                   53.0000     0.00000000     0.00000000     1.61358221
    2 Cl                  17.0000     0.00000000     0.00000000    -4.27741779
    3 C                    6.0000    -0.00000000    -0.00000000    -1.38641779
    4 H                    1.0000     0.76633039     0.76633039    -1.42843586
    5 H                    1.0000    -1.04682679     0.28049639    -1.42843586
    6 H                    1.0000     0.28049639    -1.04682679    -1.42843586

 Total times  cpu:      264.1s     wall:      264.5s
