============================== echo of input deck ==============================
echo

start molecule

title "Title"
charge -1

geometry units angstroms print xyz autosym
 I                     0.00891508    -1.36966173    -0.00009725
 Cl                   -0.00171797     3.89266663    -0.00016041
 C                     0.01104817     0.89269380     0.00004266
 H                     0.47213198     1.18822088    -0.94140132
 H                    -1.03409036     1.19059461     0.07170131
 H                     0.59626071     1.18780486     0.86991495
end

basis
  * library def2-svpd
end

ecp
 I library "def2-ecp"
end

dft
xc b3lyp
mult 1
end

driver
default
maxiter 99
end

python
from nwgeom import *
geom = '''
    geometry noprint adjust
        zcoord
            bond  1 3   %f ci  constant
            bond  2 3   3.00 ccl  constant
        end
    end
'''
x0=3.000
y0=1.801
xmax=2.171
ymax=3.000
npts=10
xmin = x0 - (xmax-x0)/npts
results = scan_input(geom, \
[xmin],
[xmax],
npts, 'dft', task_optimize)
fp=open("sn1_ci.dat","w")
for i in range(0,len(results)):
    fp.write(f'{results[i][0][0]} {results[i][1][0]} \n')
fp.close()
end

task python
================================================================================

         Total DFT energy =     -797.826520410450
@ Step       Energy      Delta E   Gmax     Grms     Xrms     Xmax   Walltime
@ ---- ---------------- -------- -------- -------- -------- -------- --------
@    0    -797.82652041  0.0D+00  0.00583  0.00451  0.00000  0.00000     30.6
         Total DFT energy =     -797.830884985661
         Total DFT energy =     -797.836086621795
@    1    -797.83608662 -9.6D-03  0.00850  0.00392  0.14203  0.23290     50.5
         Total DFT energy =     -797.836384234813
         Total DFT energy =   -797.836384234813
@    2    -797.83638423 -3.0D-04  0.00045  0.00020  0.00910  0.02203     60.4
         Total DFT energy =     -797.836385193984
         Total DFT energy =   -797.836385193984
@    3    -797.83638519 -9.6D-07  0.00003  0.00001  0.00074  0.00135     69.1
@    3    -797.83638519 -9.6D-07  0.00003  0.00001  0.00074  0.00135     69.1
         Total DFT energy =     -797.839466582864
@ Step       Energy      Delta E   Gmax     Grms     Xrms     Xmax   Walltime
@ ---- ---------------- -------- -------- -------- -------- -------- --------
@    0    -797.83946658  0.0D+00  0.00056  0.00037  0.00000  0.00000     90.8
         Total DFT energy =     -797.839513499423
         Total DFT energy =     -797.839520664481
@    1    -797.83952066 -5.4D-05  0.00043  0.00020  0.00978  0.01691    101.0
         Total DFT energy =     -797.839521288151
         Total DFT energy =   -797.839521288151
@    2    -797.83952129 -6.2D-07  0.00001  0.00001  0.00047  0.00114    107.6
@    2    -797.83952129 -6.2D-07  0.00001  0.00001  0.00047  0.00114    107.6
         Total DFT energy =     -797.842630824747
@ Step       Energy      Delta E   Gmax     Grms     Xrms     Xmax   Walltime
@ ---- ---------------- -------- -------- -------- -------- -------- --------
@    0    -797.84263082  0.0D+00  0.00066  0.00044  0.00000  0.00000    125.9
         Total DFT energy =     -797.842703617965
         Total DFT energy =   -797.842703617965
@    1    -797.84270362 -7.3D-05  0.00002  0.00002  0.01153  0.01983    133.8
         Total DFT energy =     -797.842703791209
         Total DFT energy =   -797.842703791209
@    2    -797.84270379 -1.7D-07  0.00004  0.00002  0.00037  0.00063    140.3
@    2    -797.84270379 -1.7D-07  0.00004  0.00002  0.00037  0.00063    140.3
         Total DFT energy =     -797.845807388000
@ Step       Energy      Delta E   Gmax     Grms     Xrms     Xmax   Walltime
@ ---- ---------------- -------- -------- -------- -------- -------- --------
@    0    -797.84580739  0.0D+00  0.00076  0.00052  0.00000  0.00000    147.8
         Total DFT energy =     -797.845901216902
         Total DFT energy =   -797.845901216902
@    1    -797.84590122 -9.4D-05  0.00105  0.00049  0.01202  0.02080    155.6
         Total DFT energy =     -797.845905957139
         Total DFT energy =   -797.845905957139
@    2    -797.84590596 -4.7D-06  0.00013  0.00006  0.00136  0.00255    162.1
         Total DFT energy =     -797.845906019086
         Total DFT energy =   -797.845906019086
@    3    -797.84590602 -6.2D-08  0.00001  0.00001  0.00014  0.00033    167.4
@    3    -797.84590602 -6.2D-08  0.00001  0.00001  0.00014  0.00033    167.4
         Total DFT energy =     -797.848955180941
@ Step       Energy      Delta E   Gmax     Grms     Xrms     Xmax   Walltime
@ ---- ---------------- -------- -------- -------- -------- -------- --------
@    0    -797.84895518  0.0D+00  0.00085  0.00059  0.00000  0.00000    174.7
         Total DFT energy =     -797.849081112287
         Total DFT energy =   -797.849081112287
@    1    -797.84908111 -1.3D-04  0.00030  0.00014  0.01420  0.02434    181.4
         Total DFT energy =     -797.849081604956
         Total DFT energy =   -797.849081604956
@    2    -797.84908160 -4.9D-07  0.00006  0.00003  0.00036  0.00075    187.2
@    2    -797.84908160 -4.9D-07  0.00006  0.00003  0.00036  0.00075    187.2
         Total DFT energy =     -797.852000393158
@ Step       Energy      Delta E   Gmax     Grms     Xrms     Xmax   Walltime
@ ---- ---------------- -------- -------- -------- -------- -------- --------
@    0    -797.85200039  0.0D+00  0.00095  0.00066  0.00000  0.00000    194.6
         Total DFT energy =     -797.852155512945
         Total DFT energy =   -797.852155512945
@    1    -797.85215551 -1.6D-04  0.00097  0.00045  0.01723  0.02880    201.4
         Total DFT energy =     -797.852159937169
         Total DFT energy =   -797.852159937169
@    2    -797.85215994 -4.4D-06  0.00006  0.00003  0.00163  0.00305    207.6
         Total DFT energy =     -797.852159957433
         Total DFT energy =   -797.852159957433
@    3    -797.85215996 -2.0D-08  0.00000  0.00000  0.00008  0.00017    213.0
@    3    -797.85215996 -2.0D-08  0.00000  0.00000  0.00008  0.00017    213.0
         Total DFT energy =     -797.854830956896
@ Step       Energy      Delta E   Gmax     Grms     Xrms     Xmax   Walltime
@ ---- ---------------- -------- -------- -------- -------- -------- --------
@    0    -797.85483096  0.0D+00  0.00102  0.00072  0.00000  0.00000    220.5
         Total DFT energy =     -797.855019833120
         Total DFT energy =   -797.855019833120
@    1    -797.85501983 -1.9D-04  0.00047  0.00022  0.01659  0.02815    227.4
         Total DFT energy =     -797.855020824897
         Total DFT energy =   -797.855020824897
@    2    -797.85502082 -9.9D-07  0.00001  0.00001  0.00065  0.00139    233.2
@    2    -797.85502082 -9.9D-07  0.00001  0.00001  0.00065  0.00139    233.2
         Total DFT energy =     -797.857260309148
@ Step       Energy      Delta E   Gmax     Grms     Xrms     Xmax   Walltime
@ ---- ---------------- -------- -------- -------- -------- -------- --------
@    0    -797.85726031  0.0D+00  0.00109  0.00078  0.00000  0.00000    240.8
         Total DFT energy =     -797.857476711624
         Total DFT energy =   -797.857476711624
@    1    -797.85747671 -2.2D-04  0.00070  0.00033  0.01926  0.03174    247.7
         Total DFT energy =     -797.857479941170
         Total DFT energy =   -797.857479941170
@    2    -797.85747994 -3.2D-06  0.00001  0.00000  0.00166  0.00259    254.1
         Total DFT energy =     -797.857479947649
         Total DFT energy =   -797.857479947649
@    3    -797.85747995 -6.5D-09  0.00000  0.00000  0.00008  0.00014    259.5
@    3    -797.85747995 -6.5D-09  0.00000  0.00000  0.00008  0.00014    259.5
         Total DFT energy =     -797.858999957129
@ Step       Energy      Delta E   Gmax     Grms     Xrms     Xmax   Walltime
@ ---- ---------------- -------- -------- -------- -------- -------- --------
@    0    -797.85899996  0.0D+00  0.00113  0.00083  0.00000  0.00000    267.2
         Total DFT energy =     -797.859239395597
         Total DFT energy =   -797.859239395597
@    1    -797.85923940 -2.4D-04  0.00009  0.00004  0.01778  0.02940    274.8
         Total DFT energy =     -797.859239474486
         Total DFT energy =   -797.859239474486
@    2    -797.85923947 -7.9D-08  0.00000  0.00000  0.00029  0.00041    280.3
@    2    -797.85923947 -7.9D-08  0.00000  0.00000  0.00029  0.00041    280.3
         Total DFT energy =     -797.859578046543
@ Step       Energy      Delta E   Gmax     Grms     Xrms     Xmax   Walltime
@ ---- ---------------- -------- -------- -------- -------- -------- --------
@    0    -797.85957805  0.0D+00  0.00116  0.00087  0.00000  0.00000    288.1
         Total DFT energy =     -797.859836247701
         Total DFT energy =   -797.859836247701
@    1    -797.85983625 -2.6D-04  0.00012  0.00006  0.01839  0.03005    295.9
         Total DFT energy =     -797.859836365674

                       DFT Final Molecular Orbital Analysis
                       ------------------------------------

 Vector    1  Occ=2.000000D+00  E=-1.012571D+02  Symmetry=a1

 Vector   34  Occ=0.000000D+00  E= 2.084686D-01  Symmetry=e

 Vector   35  Occ=0.000000D+00  E= 2.265087D-01  Symmetry=e

 Vector   36  Occ=0.000000D+00  E= 2.265087D-01  Symmetry=e

 Vector   37  Occ=0.000000D+00  E= 2.278430D-01  Symmetry=a1

 Vector   38  Occ=0.000000D+00  E= 2.520806D-01  Symmetry=e

 Vector   39  Occ=0.000000D+00  E= 2.520806D-01  Symmetry=e

 Vector   40  Occ=0.000000D+00  E= 2.660745D-01  Symmetry=a1

 Vector   41  Occ=0.000000D+00  E= 2.855145D-01  Symmetry=e

 Vector   42  Occ=0.000000D+00  E= 2.855145D-01  Symmetry=e

 Vector   43  Occ=0.000000D+00  E= 3.002113D-01  Symmetry=a1

 Vector   44  Occ=0.000000D+00  E= 3.138657D-01  Symmetry=a1

 Vector   45  Occ=0.000000D+00  E= 3.330790D-01  Symmetry=e

 Vector   46  Occ=0.000000D+00  E= 3.330790D-01  Symmetry=e

 Vector   47  Occ=0.000000D+00  E= 4.097673D-01  Symmetry=a1

 Vector   48  Occ=0.000000D+00  E= 4.205258D-01  Symmetry=e

 Vector   49  Occ=0.000000D+00  E= 4.205258D-01  Symmetry=e

 Vector   50  Occ=0.000000D+00  E= 4.422154D-01  Symmetry=e

 Vector   51  Occ=0.000000D+00  E= 4.422154D-01  Symmetry=e

 Vector   52  Occ=0.000000D+00  E= 4.456509D-01  Symmetry=a1

 Vector   53  Occ=0.000000D+00  E= 4.735877D-01  Symmetry=a2

 Vector   54  Occ=0.000000D+00  E= 4.950787D-01  Symmetry=a1

 Vector   55  Occ=0.000000D+00  E= 5.045012D-01  Symmetry=e

 Vector   56  Occ=0.000000D+00  E= 5.045012D-01  Symmetry=e

 Vector   57  Occ=0.000000D+00  E= 5.156695D-01  Symmetry=e

 Vector   58  Occ=0.000000D+00  E= 5.156695D-01  Symmetry=e

 Vector   59  Occ=0.000000D+00  E= 5.246092D-01  Symmetry=a1

 Vector   60  Occ=0.000000D+00  E= 5.617393D-01  Symmetry=a1

 Vector   61  Occ=0.000000D+00  E= 5.639621D-01  Symmetry=e

 Vector   62  Occ=0.000000D+00  E= 5.639621D-01  Symmetry=e

 Vector   63  Occ=0.000000D+00  E= 5.745667D-01  Symmetry=e

 Vector   64  Occ=0.000000D+00  E= 5.745667D-01  Symmetry=e

 Vector   65  Occ=0.000000D+00  E= 6.213476D-01  Symmetry=a1

 Vector   66  Occ=0.000000D+00  E= 6.552380D-01  Symmetry=a1

 Vector   67  Occ=0.000000D+00  E= 7.007788D-01  Symmetry=e

 Vector   68  Occ=0.000000D+00  E= 7.007788D-01  Symmetry=e

 Vector   69  Occ=0.000000D+00  E= 7.392553D-01  Symmetry=a1

 Vector   70  Occ=0.000000D+00  E= 7.537442D-01  Symmetry=e

 Vector   71  Occ=0.000000D+00  E= 7.537442D-01  Symmetry=e

 Vector   72  Occ=0.000000D+00  E= 7.986927D-01  Symmetry=a1

 Vector   73  Occ=0.000000D+00  E= 8.284735D-01  Symmetry=e

 Vector   74  Occ=0.000000D+00  E= 8.284735D-01  Symmetry=e

 Vector   75  Occ=0.000000D+00  E= 9.798051D-01  Symmetry=a1

 Vector   76  Occ=0.000000D+00  E= 1.028481D+00  Symmetry=e

 Vector   77  Occ=0.000000D+00  E= 1.028481D+00  Symmetry=e

 Vector   78  Occ=0.000000D+00  E= 1.112433D+00  Symmetry=e

 Vector   79  Occ=0.000000D+00  E= 1.112433D+00  Symmetry=e

 Vector   80  Occ=0.000000D+00  E= 1.128975D+00  Symmetry=a1

 Vector   81  Occ=0.000000D+00  E= 1.206771D+00  Symmetry=a1

 Vector   82  Occ=0.000000D+00  E= 1.218715D+00  Symmetry=e

 Vector   83  Occ=0.000000D+00  E= 1.218715D+00  Symmetry=e

 Vector   84  Occ=0.000000D+00  E= 1.254460D+00  Symmetry=e

 Vector   85  Occ=0.000000D+00  E= 1.254460D+00  Symmetry=e

 Vector   86  Occ=0.000000D+00  E= 1.267631D+00  Symmetry=a1

 Vector   87  Occ=0.000000D+00  E= 1.303984D+00  Symmetry=e

 Vector   88  Occ=0.000000D+00  E= 1.303984D+00  Symmetry=e

 Vector   89  Occ=0.000000D+00  E= 1.328528D+00  Symmetry=a1

 Vector   90  Occ=0.000000D+00  E= 1.455879D+00  Symmetry=a1

 Vector   91  Occ=0.000000D+00  E= 1.633950D+00  Symmetry=a1

 Vector   92  Occ=0.000000D+00  E= 1.696147D+00  Symmetry=e

 Vector   93  Occ=0.000000D+00  E= 1.696147D+00  Symmetry=e

 Vector   94  Occ=0.000000D+00  E= 1.770786D+00  Symmetry=a2

 Vector   95  Occ=0.000000D+00  E= 1.916167D+00  Symmetry=a1

 Vector   96  Occ=0.000000D+00  E= 1.927302D+00  Symmetry=e

 Vector   97  Occ=0.000000D+00  E= 1.927302D+00  Symmetry=e

 Vector   98  Occ=0.000000D+00  E= 2.162712D+00  Symmetry=a1

 Vector   99  Occ=0.000000D+00  E= 2.205399D+00  Symmetry=e

 Vector  100  Occ=0.000000D+00  E= 2.205399D+00  Symmetry=e

 Vector  101  Occ=0.000000D+00  E= 2.373804D+00  Symmetry=a1

 Vector  102  Occ=0.000000D+00  E= 2.620914D+00  Symmetry=e

 Vector  103  Occ=0.000000D+00  E= 2.620914D+00  Symmetry=e

 Vector  104  Occ=0.000000D+00  E= 2.940170D+00  Symmetry=a1

 Vector  105  Occ=0.000000D+00  E= 3.137335D+00  Symmetry=e

 Vector  106  Occ=0.000000D+00  E= 3.137335D+00  Symmetry=e

 Vector  107  Occ=0.000000D+00  E= 4.195695D+00  Symmetry=a1

 Vector  108  Occ=0.000000D+00  E= 5.397057D+00  Symmetry=a1

 Vector  109  Occ=0.000000D+00  E= 1.717501D+01  Symmetry=a1

 Vector  110  Occ=0.000000D+00  E= 1.898368D+01  Symmetry=e

 Vector  111  Occ=0.000000D+00  E= 1.898368D+01  Symmetry=e

 Vector  112  Occ=0.000000D+00  E= 1.958220D+01  Symmetry=a1

 Vector  113  Occ=0.000000D+00  E= 6.125380D+01  Symmetry=a1

     Multipole analysis of the density
     ---------------------------------

     L   x y z        total         alpha         beta         nuclear
     -   - - -        -----         -----         ----         -------
     0   0 0 0     -1.000000    -26.000000    -26.000000     51.000000

     1   1 0 0     -0.000000     -0.000000     -0.000000      0.000000
     1   0 1 0     -0.000000     -0.000000     -0.000000      0.000000
     1   0 0 1      5.019925     40.822061     40.822061    -76.624198

     2   2 0 0    -39.561190    -22.718062    -22.718062      5.874934
     2   1 1 0     -0.000000     -0.000000     -0.000000      0.000000
     2   1 0 1     -0.000000     -0.000000     -0.000000      0.000000
     2   0 2 0    -39.561190    -22.718062    -22.718062      5.874934
     2   0 1 1     -0.000000     -0.000000     -0.000000      0.000000

         Total DFT energy =   -797.859836365674
@    2    -797.85983637 -1.2D-07  0.00001  0.00001  0.00028  0.00049    301.3
@    2    -797.85983637 -1.2D-07  0.00001  0.00001  0.00028  0.00049    301.3

 Output coordinates in angstroms (scale by  1.889725989 to convert to a.u.)

  No.       Tag          Charge          X              Y              Z
 ---- ---------------- ---------- -------------- -------------- --------------
    1 I                   53.0000     0.00000000     0.00000000     1.37160734
    2 Cl                  17.0000     0.00000000     0.00000000    -3.88229266
    3 C                    6.0000     0.00000000     0.00000000    -0.88229266
    4 H                    1.0000     0.74052893     0.74052893    -1.18174485
    5 H                    1.0000     0.27105240    -1.01158133    -1.18174485
    6 H                    1.0000    -1.01158133     0.27105240    -1.18174485

 Total times  cpu:      300.8s     wall:      301.3s
