============================== echo of input deck ==============================
echo

start molecule

title "Title"
charge 0

geometry units angstroms print xyz autosym
   I       -1.43431        2.42915       -0.35100
   C       -0.73026        0.47537        0.03393
   H       -1.08028       -0.22672       -0.72889
   H       -1.08028        0.11510        1.00606
   H        0.36353        0.44503        0.03991
end

basis
  * library def2-svpd
end

ecp
I library "def2-ecp"
end

dft
xc b3lyp
mult 1
end

driver
default
maxiter 99
xyz CH3I_GS
end

task dft optimize
================================================================================

         Total DFT energy =     -337.680095448610
@ Step       Energy      Delta E   Gmax     Grms     Xrms     Xmax   Walltime
@ ---- ---------------- -------- -------- -------- -------- -------- --------
@    0    -337.68009545  0.0D+00  0.01134  0.00424  0.00000  0.00000      6.8
         Total DFT energy =     -337.681009533428
         Total DFT energy =     -337.681444112668
@    1    -337.68144411 -1.3D-03  0.00539  0.00270  0.03387  0.08154     15.3
         Total DFT energy =     -337.681585882727
         Total DFT energy =     -337.681595011050
@    2    -337.68159501 -1.5D-04  0.00129  0.00062  0.00761  0.01836     23.0
         Total DFT energy =     -337.681603477613
         Total DFT energy =     -337.681604186461
@    3    -337.68160419 -9.2D-06  0.00003  0.00002  0.00260  0.00828     30.6
         Total DFT energy =     -337.681604193461

                       DFT Final Molecular Orbital Analysis
                       ------------------------------------

 Vector    1  Occ=2.000000D+00  E=-1.024790D+01  Symmetry=a1

 Vector    5  Occ=2.000000D+00  E=-4.851356D+00  Symmetry=e

 Vector    6  Occ=2.000000D+00  E=-1.914316D+00  Symmetry=a1

 Vector    7  Occ=2.000000D+00  E=-1.909588D+00  Symmetry=e

 Vector    8  Occ=2.000000D+00  E=-1.909588D+00  Symmetry=e

 Vector    9  Occ=2.000000D+00  E=-1.896887D+00  Symmetry=e

 Vector   10  Occ=2.000000D+00  E=-1.896887D+00  Symmetry=e

 Vector   11  Occ=2.000000D+00  E=-7.512370D-01  Symmetry=a1

 Vector   12  Occ=2.000000D+00  E=-6.468434D-01  Symmetry=a1

 Vector   13  Occ=2.000000D+00  E=-4.427869D-01  Symmetry=e

 Vector   14  Occ=2.000000D+00  E=-4.427869D-01  Symmetry=e

 Vector   15  Occ=2.000000D+00  E=-3.610563D-01  Symmetry=a1

 Vector   16  Occ=2.000000D+00  E=-2.599848D-01  Symmetry=e

 Vector   17  Occ=2.000000D+00  E=-2.599848D-01  Symmetry=e

 Vector   18  Occ=0.000000D+00  E=-4.986404D-02  Symmetry=a1

 Vector   19  Occ=0.000000D+00  E= 8.154380D-04  Symmetry=a1

 Vector   20  Occ=0.000000D+00  E= 4.054472D-02  Symmetry=e

 Vector   21  Occ=0.000000D+00  E= 4.054472D-02  Symmetry=e

 Vector   22  Occ=0.000000D+00  E= 4.530676D-02  Symmetry=a1

 Vector   23  Occ=0.000000D+00  E= 7.467664D-02  Symmetry=a1

 Vector   24  Occ=0.000000D+00  E= 8.781580D-02  Symmetry=e

 Vector   25  Occ=0.000000D+00  E= 8.781580D-02  Symmetry=e

 Vector   26  Occ=0.000000D+00  E= 1.165604D-01  Symmetry=e

 Vector   27  Occ=0.000000D+00  E= 1.165604D-01  Symmetry=e

 Vector   28  Occ=0.000000D+00  E= 1.370762D-01  Symmetry=e

 Vector   29  Occ=0.000000D+00  E= 1.370762D-01  Symmetry=e

 Vector   30  Occ=0.000000D+00  E= 1.642065D-01  Symmetry=a1

 Vector   31  Occ=0.000000D+00  E= 1.851812D-01  Symmetry=e

 Vector   32  Occ=0.000000D+00  E= 1.851812D-01  Symmetry=e

 Vector   33  Occ=0.000000D+00  E= 1.953470D-01  Symmetry=a1

 Vector   34  Occ=0.000000D+00  E= 2.229792D-01  Symmetry=a1

 Vector   35  Occ=0.000000D+00  E= 2.826907D-01  Symmetry=a1

 Vector   36  Occ=0.000000D+00  E= 3.117001D-01  Symmetry=e

 Vector   37  Occ=0.000000D+00  E= 3.117001D-01  Symmetry=e

 Vector   38  Occ=0.000000D+00  E= 3.339778D-01  Symmetry=a2

 Vector   39  Occ=0.000000D+00  E= 3.431205D-01  Symmetry=e

 Vector   40  Occ=0.000000D+00  E= 3.431205D-01  Symmetry=e

 Vector   41  Occ=0.000000D+00  E= 3.606551D-01  Symmetry=a1

 Vector   42  Occ=0.000000D+00  E= 3.954111D-01  Symmetry=e

 Vector   43  Occ=0.000000D+00  E= 3.954111D-01  Symmetry=e

 Vector   44  Occ=0.000000D+00  E= 4.034533D-01  Symmetry=a1

 Vector   45  Occ=0.000000D+00  E= 4.199971D-01  Symmetry=e

 Vector   46  Occ=0.000000D+00  E= 4.199971D-01  Symmetry=e

 Vector   47  Occ=0.000000D+00  E= 4.886096D-01  Symmetry=a1

 Vector   48  Occ=0.000000D+00  E= 5.506482D-01  Symmetry=e

 Vector   49  Occ=0.000000D+00  E= 5.506482D-01  Symmetry=e

 Vector   50  Occ=0.000000D+00  E= 6.067186D-01  Symmetry=a1

 Vector   51  Occ=0.000000D+00  E= 6.254524D-01  Symmetry=e

 Vector   52  Occ=0.000000D+00  E= 6.254524D-01  Symmetry=e

 Vector   53  Occ=0.000000D+00  E= 6.791578D-01  Symmetry=a1

 Vector   54  Occ=0.000000D+00  E= 6.929520D-01  Symmetry=e

 Vector   55  Occ=0.000000D+00  E= 6.929520D-01  Symmetry=e

 Vector   56  Occ=0.000000D+00  E= 8.441889D-01  Symmetry=a1

 Vector   57  Occ=0.000000D+00  E= 8.495761D-01  Symmetry=e

 Vector   58  Occ=0.000000D+00  E= 8.495761D-01  Symmetry=e

 Vector   59  Occ=0.000000D+00  E= 8.774526D-01  Symmetry=a1

 Vector   60  Occ=0.000000D+00  E= 9.766095D-01  Symmetry=e

 Vector   61  Occ=0.000000D+00  E= 9.766095D-01  Symmetry=e

 Vector   62  Occ=0.000000D+00  E= 9.859656D-01  Symmetry=a1

 Vector   63  Occ=0.000000D+00  E= 1.219975D+00  Symmetry=a1

 Vector   64  Occ=0.000000D+00  E= 1.536525D+00  Symmetry=e

 Vector   65  Occ=0.000000D+00  E= 1.536525D+00  Symmetry=e

 Vector   66  Occ=0.000000D+00  E= 1.625301D+00  Symmetry=a2

 Vector   67  Occ=0.000000D+00  E= 1.752828D+00  Symmetry=a1

 Vector   68  Occ=0.000000D+00  E= 1.783553D+00  Symmetry=e

 Vector   69  Occ=0.000000D+00  E= 1.783553D+00  Symmetry=e

 Vector   70  Occ=0.000000D+00  E= 1.999990D+00  Symmetry=e

 Vector   71  Occ=0.000000D+00  E= 1.999990D+00  Symmetry=e

 Vector   72  Occ=0.000000D+00  E= 2.010686D+00  Symmetry=a1

 Vector   73  Occ=0.000000D+00  E= 2.215315D+00  Symmetry=a1

 Vector   74  Occ=0.000000D+00  E= 2.465305D+00  Symmetry=e

 Vector   75  Occ=0.000000D+00  E= 2.465305D+00  Symmetry=e

 Vector   76  Occ=0.000000D+00  E= 2.744702D+00  Symmetry=a1

 Vector   77  Occ=0.000000D+00  E= 2.990216D+00  Symmetry=e

 Vector   78  Occ=0.000000D+00  E= 2.990216D+00  Symmetry=e

 Vector   79  Occ=0.000000D+00  E= 5.223083D+00  Symmetry=a1

 Vector   80  Occ=0.000000D+00  E= 1.703924D+01  Symmetry=a1

 Vector   81  Occ=0.000000D+00  E= 1.886109D+01  Symmetry=e

 Vector   82  Occ=0.000000D+00  E= 1.886109D+01  Symmetry=e

 Vector   83  Occ=0.000000D+00  E= 1.949702D+01  Symmetry=a1

 Vector   84  Occ=0.000000D+00  E= 6.112273D+01  Symmetry=a1

     Multipole analysis of the density
     ---------------------------------

     L   x y z        total         alpha         beta         nuclear
     -   - - -        -----         -----         ----         -------
     0   0 0 0      0.000000    -17.000000    -17.000000     34.000000

     1   1 0 0     -0.000000     -0.000000     -0.000000      0.000000
     1   0 1 0     -0.000000     -0.000000     -0.000000     -0.000000
     1   0 0 1     -0.666518      8.286434      8.286434    -17.239386

     2   2 0 0    -26.082150    -15.952492    -15.952492      5.822835
     2   1 1 0     -0.000000     -0.000000     -0.000000      0.000000
     2   1 0 1     -0.000000     -0.000000     -0.000000      0.000000
     2   0 2 0    -26.082150    -15.952492    -15.952492      5.822835
     2   0 1 1      0.000000      0.000000      0.000000      0.000000

         Total DFT energy =   -337.681604193461
@    4    -337.68160419 -7.0D-09  0.00000  0.00000  0.00004  0.00011     34.6
@    4    -337.68160419 -7.0D-09  0.00000  0.00000  0.00004  0.00011     34.6

 Output coordinates in angstroms (scale by  1.889725989 to convert to a.u.)

  No.       Tag          Charge          X              Y              Z
 ---- ---------------- ---------- -------------- -------------- --------------
    1 I                   53.0000    -0.00000000     0.00000000     0.33566236
    2 C                    6.0000     0.00000000     0.00000000    -1.83540985
    3 H                    1.0000     0.73723810     0.73723810    -2.16726358
    4 H                    1.0000    -1.00708598     0.26984787    -2.16726358
    5 H                    1.0000     0.26984787    -1.00708598    -2.16726358

 Total times  cpu:       34.0s     wall:       34.7s
