============================== echo of input deck ==============================
echo

start molecule

title "Title"
charge -1

geometry units angstroms print xyz autosym
I        0.0037765943     -0.0037765943     -3.1954706860
Cl       0.0000000000      0.0000000000      0.6728488100
C        0.0000000000      0.0000000000     -1.1284976200
H        0.7352919300      0.7352919300     -1.4730419600
H        0.2691355300     -1.0044274600     -1.4730419600
H       -1.0044274600      0.2691355300     -1.4730419600
end

geometry adjust
        zcoord
            bond 1 3 3.000 cccc constant
	end
end

basis
  * library def2-svpd
end

ecp
 I library "def2-ecp"
end

dft
xc b3lyp
mult 1
end

driver
default
maxiter 99
xyz CH3Cl_I
end

task dft optimize
================================================================================

         Total DFT energy =     -797.812138050955
@ Step       Energy      Delta E   Gmax     Grms     Xrms     Xmax   Walltime
@ ---- ---------------- -------- -------- -------- -------- -------- --------
@    0    -797.81213805  0.0D+00  0.04560  0.01488  0.00000  0.00000      9.4
         Total DFT energy =     -797.840351120457
         Total DFT energy =     -797.841510914336
@    1    -797.84151091 -2.9D-02  0.05601  0.01800  0.20104  0.41101     21.5
         Total DFT energy =     -797.862453547608
         Total DFT energy =   -797.862453547608
@    2    -797.86245355 -2.1D-02  0.00879  0.00309  0.05825  0.11825     29.5
         Total DFT energy =     -797.864367121507
         Total DFT energy =     -797.865443609461
@    3    -797.86544361 -3.0D-03  0.00549  0.00182  0.04108  0.08262     40.6
         Total DFT energy =     -797.866222066569
         Total DFT energy =     -797.867003145308
@    4    -797.86700315 -1.6D-03  0.00731  0.00107  0.03571  0.07633     51.8
         Total DFT energy =     -797.867161490153
         Total DFT energy =     -797.867234460147
@    5    -797.86723446 -2.3D-04  0.00131  0.00044  0.01249  0.04071     62.2
         Total DFT energy =     -797.867257344565
         Total DFT energy =     -797.867257687986
@    6    -797.86725769 -2.3D-05  0.00014  0.00002  0.00348  0.00982     71.9
         Total DFT energy =     -797.867257881437

                       DFT Final Molecular Orbital Analysis
                       ------------------------------------

 Vector    1  Occ=2.000000D+00  E=-1.013897D+02  Symmetry=a1

 Vector   34  Occ=0.000000D+00  E= 1.944786D-01  Symmetry=e

 Vector   35  Occ=0.000000D+00  E= 2.114152D-01  Symmetry=a1

 Vector   36  Occ=0.000000D+00  E= 2.389753D-01  Symmetry=e

 Vector   37  Occ=0.000000D+00  E= 2.389753D-01  Symmetry=e

 Vector   38  Occ=0.000000D+00  E= 2.642579D-01  Symmetry=a1

 Vector   39  Occ=0.000000D+00  E= 2.696079D-01  Symmetry=e

 Vector   40  Occ=0.000000D+00  E= 2.696079D-01  Symmetry=e

 Vector   41  Occ=0.000000D+00  E= 2.972725D-01  Symmetry=e

 Vector   42  Occ=0.000000D+00  E= 2.972725D-01  Symmetry=e

 Vector   43  Occ=0.000000D+00  E= 3.328160D-01  Symmetry=a1

 Vector   44  Occ=0.000000D+00  E= 3.347348D-01  Symmetry=e

 Vector   45  Occ=0.000000D+00  E= 3.347348D-01  Symmetry=e

 Vector   46  Occ=0.000000D+00  E= 3.413148D-01  Symmetry=a1

 Vector   47  Occ=0.000000D+00  E= 3.779204D-01  Symmetry=e

 Vector   48  Occ=0.000000D+00  E= 3.779204D-01  Symmetry=e

 Vector   49  Occ=0.000000D+00  E= 4.158872D-01  Symmetry=a1

 Vector   50  Occ=0.000000D+00  E= 4.229331D-01  Symmetry=e

 Vector   51  Occ=0.000000D+00  E= 4.229331D-01  Symmetry=e

 Vector   52  Occ=0.000000D+00  E= 4.307189D-01  Symmetry=a1

 Vector   53  Occ=0.000000D+00  E= 4.615974D-01  Symmetry=a1

 Vector   54  Occ=0.000000D+00  E= 4.723392D-01  Symmetry=a2

 Vector   55  Occ=0.000000D+00  E= 5.090286D-01  Symmetry=a1

 Vector   56  Occ=0.000000D+00  E= 5.101929D-01  Symmetry=e

 Vector   57  Occ=0.000000D+00  E= 5.101929D-01  Symmetry=e

 Vector   58  Occ=0.000000D+00  E= 5.340203D-01  Symmetry=e

 Vector   59  Occ=0.000000D+00  E= 5.340203D-01  Symmetry=e

 Vector   60  Occ=0.000000D+00  E= 5.355457D-01  Symmetry=a1

 Vector   61  Occ=0.000000D+00  E= 5.901113D-01  Symmetry=e

 Vector   62  Occ=0.000000D+00  E= 5.901113D-01  Symmetry=e

 Vector   63  Occ=0.000000D+00  E= 6.165649D-01  Symmetry=e

 Vector   64  Occ=0.000000D+00  E= 6.165649D-01  Symmetry=e

 Vector   65  Occ=0.000000D+00  E= 6.224999D-01  Symmetry=a1

 Vector   66  Occ=0.000000D+00  E= 6.739243D-01  Symmetry=a1

 Vector   67  Occ=0.000000D+00  E= 7.293836D-01  Symmetry=e

 Vector   68  Occ=0.000000D+00  E= 7.293836D-01  Symmetry=e

 Vector   69  Occ=0.000000D+00  E= 8.077443D-01  Symmetry=e

 Vector   70  Occ=0.000000D+00  E= 8.077443D-01  Symmetry=e

 Vector   71  Occ=0.000000D+00  E= 8.104349D-01  Symmetry=a1

 Vector   72  Occ=0.000000D+00  E= 8.304562D-01  Symmetry=e

 Vector   73  Occ=0.000000D+00  E= 8.304562D-01  Symmetry=e

 Vector   74  Occ=0.000000D+00  E= 8.941906D-01  Symmetry=a1

 Vector   75  Occ=0.000000D+00  E= 9.796068D-01  Symmetry=e

 Vector   76  Occ=0.000000D+00  E= 9.796068D-01  Symmetry=e

 Vector   77  Occ=0.000000D+00  E= 1.041830D+00  Symmetry=a1

 Vector   78  Occ=0.000000D+00  E= 1.057805D+00  Symmetry=e

 Vector   79  Occ=0.000000D+00  E= 1.057805D+00  Symmetry=e

 Vector   80  Occ=0.000000D+00  E= 1.068390D+00  Symmetry=a1

 Vector   81  Occ=0.000000D+00  E= 1.114505D+00  Symmetry=e

 Vector   82  Occ=0.000000D+00  E= 1.114505D+00  Symmetry=e

 Vector   83  Occ=0.000000D+00  E= 1.131603D+00  Symmetry=a1

 Vector   84  Occ=0.000000D+00  E= 1.209016D+00  Symmetry=a1

 Vector   85  Occ=0.000000D+00  E= 1.253071D+00  Symmetry=a1

 Vector   86  Occ=0.000000D+00  E= 1.258405D+00  Symmetry=e

 Vector   87  Occ=0.000000D+00  E= 1.258405D+00  Symmetry=e

 Vector   88  Occ=0.000000D+00  E= 1.344678D+00  Symmetry=e

 Vector   89  Occ=0.000000D+00  E= 1.344678D+00  Symmetry=e

 Vector   90  Occ=0.000000D+00  E= 1.472941D+00  Symmetry=a1

 Vector   91  Occ=0.000000D+00  E= 1.676540D+00  Symmetry=e

 Vector   92  Occ=0.000000D+00  E= 1.676540D+00  Symmetry=e

 Vector   93  Occ=0.000000D+00  E= 1.710179D+00  Symmetry=a1

 Vector   94  Occ=0.000000D+00  E= 1.765877D+00  Symmetry=a2

 Vector   95  Occ=0.000000D+00  E= 1.960756D+00  Symmetry=e

 Vector   96  Occ=0.000000D+00  E= 1.960756D+00  Symmetry=e

 Vector   97  Occ=0.000000D+00  E= 2.058102D+00  Symmetry=a1

 Vector   98  Occ=0.000000D+00  E= 2.223799D+00  Symmetry=e

 Vector   99  Occ=0.000000D+00  E= 2.223799D+00  Symmetry=e

 Vector  100  Occ=0.000000D+00  E= 2.281585D+00  Symmetry=a1

 Vector  101  Occ=0.000000D+00  E= 2.349381D+00  Symmetry=a1

 Vector  102  Occ=0.000000D+00  E= 2.618318D+00  Symmetry=e

 Vector  103  Occ=0.000000D+00  E= 2.618318D+00  Symmetry=e

 Vector  104  Occ=0.000000D+00  E= 2.966567D+00  Symmetry=a1

 Vector  105  Occ=0.000000D+00  E= 3.140658D+00  Symmetry=e

 Vector  106  Occ=0.000000D+00  E= 3.140658D+00  Symmetry=e

 Vector  107  Occ=0.000000D+00  E= 4.104169D+00  Symmetry=a1

 Vector  108  Occ=0.000000D+00  E= 5.392540D+00  Symmetry=a1

 Vector  109  Occ=0.000000D+00  E= 1.721295D+01  Symmetry=a1

 Vector  110  Occ=0.000000D+00  E= 1.902756D+01  Symmetry=e

 Vector  111  Occ=0.000000D+00  E= 1.902756D+01  Symmetry=e

 Vector  112  Occ=0.000000D+00  E= 1.953552D+01  Symmetry=a1

 Vector  113  Occ=0.000000D+00  E= 6.135859D+01  Symmetry=a1

     Multipole analysis of the density
     ---------------------------------

     L   x y z        total         alpha         beta         nuclear
     -   - - -        -----         -----         ----         -------
     0   0 0 0     -1.000000    -26.000000    -26.000000     51.000000

     1   1 0 0     -0.000000     -0.000000     -0.000000     -0.000000
     1   0 1 0      0.000000      0.000000      0.000000      0.000000
     1   0 0 1     -1.470916     12.144484     12.144484    -25.759883

     2   2 0 0    -40.342076    -23.131514    -23.131514      5.920952
     2   1 1 0      0.000000     -0.000000     -0.000000      0.000000
     2   1 0 1     -0.000000     -0.000000     -0.000000      0.000000
     2   0 2 0    -40.342076    -23.131514    -23.131514      5.920952
     2   0 1 1     -0.000000     -0.000000     -0.000000      0.000000

         Total DFT energy =   -797.867257881437
@    7    -797.86725788 -1.9D-07  0.00003  0.00000  0.00037  0.00092     77.6
@    7    -797.86725788 -1.9D-07  0.00003  0.00000  0.00037  0.00092     77.6

 Output coordinates in angstroms (scale by  1.889725989 to convert to a.u.)

  No.       Tag          Charge          X              Y              Z
 ---- ---------------- ---------- -------------- -------------- --------------
    1 I                   53.0000     0.00000000     0.00000000     1.88716539
    2 Cl                  17.0000     0.00000000     0.00000000    -3.03660307
    3 C                    6.0000     0.00000000     0.00000000    -1.11283396
    4 H                    1.0000     0.74342354     0.74342354    -0.83714093
    5 H                    1.0000    -1.01553544     0.27211190    -0.83714093
    6 H                    1.0000     0.27211190    -1.01553544    -0.83714093

 Total times  cpu:       77.5s     wall:       77.6s
