============================== echo of input deck ==============================
echo

start molecule

title "Title"
charge -1

geometry units angstroms print xyz autosym
I        0.0000000000      0.0000000000      0.3356623600
Cl      -0.0269859503      0.0052847933     -3.5720952320
C        0.0000000000      0.0000000000     -1.8354098500
H        0.2698478700     -1.0070859800     -2.1672635800
H       -1.0070859800      0.2698478700     -2.1672635800
H        0.7372381000      0.7372381000     -2.1672635800
end

geometry adjust
        zcoord
            bond 2 3 3.000 cccc constant
	end
end

basis
  * library def2-svpd
end

ecp
 I library "def2-ecp"
end

dft
xc b3lyp
mult 1
end

driver
default
maxiter 99
xyz CH3I_Cl
end

task dft optimize
================================================================================

         Total DFT energy =     -797.858602477166
@ Step       Energy      Delta E   Gmax     Grms     Xrms     Xmax   Walltime
@ ---- ---------------- -------- -------- -------- -------- -------- --------
@    0    -797.85860248  0.0D+00  0.01520  0.00424  0.00000  0.00000     14.8
         Total DFT energy =     -797.859217021898
         Total DFT energy =     -797.859493434501
@    1    -797.85949343 -8.9D-04  0.00373  0.00194  0.02342  0.08567     30.3
         Total DFT energy =     -797.859702781794
         Total DFT energy =     -797.859757207431
@    2    -797.85975721 -2.6D-04  0.00209  0.00103  0.01464  0.03174     46.0
         Total DFT energy =     -797.859822352048
         Total DFT energy =     -797.859845063682
@    3    -797.85984506 -8.8D-05  0.00041  0.00013  0.00975  0.02136     61.6
         Total DFT energy =     -797.859846063504
         Total DFT energy =   -797.859846063504
@    4    -797.85984606 -1.0D-06  0.00009  0.00003  0.00086  0.00300     69.9
         Total DFT energy =     -797.859845981352

                       DFT Final Molecular Orbital Analysis
                       ------------------------------------

 Vector    1  Occ=2.000000D+00  E=-1.012575D+02

 Vector   34  Occ=0.000000D+00  E= 2.085783D-01

 Vector   35  Occ=0.000000D+00  E= 2.263591D-01

 Vector   36  Occ=0.000000D+00  E= 2.263612D-01

 Vector   37  Occ=0.000000D+00  E= 2.275750D-01

 Vector   38  Occ=0.000000D+00  E= 2.519253D-01

 Vector   39  Occ=0.000000D+00  E= 2.519377D-01

 Vector   40  Occ=0.000000D+00  E= 2.659926D-01

 Vector   41  Occ=0.000000D+00  E= 2.852355D-01

 Vector   42  Occ=0.000000D+00  E= 2.854250D-01

 Vector   43  Occ=0.000000D+00  E= 3.001378D-01

 Vector   44  Occ=0.000000D+00  E= 3.135426D-01

 Vector   45  Occ=0.000000D+00  E= 3.326444D-01

 Vector   46  Occ=0.000000D+00  E= 3.328888D-01

 Vector   47  Occ=0.000000D+00  E= 4.095421D-01

 Vector   48  Occ=0.000000D+00  E= 4.200611D-01

 Vector   49  Occ=0.000000D+00  E= 4.203899D-01

 Vector   50  Occ=0.000000D+00  E= 4.417566D-01

 Vector   51  Occ=0.000000D+00  E= 4.419681D-01

 Vector   52  Occ=0.000000D+00  E= 4.453472D-01

 Vector   53  Occ=0.000000D+00  E= 4.733623D-01

 Vector   54  Occ=0.000000D+00  E= 4.946002D-01

 Vector   55  Occ=0.000000D+00  E= 5.043601D-01

 Vector   56  Occ=0.000000D+00  E= 5.045020D-01

 Vector   57  Occ=0.000000D+00  E= 5.154608D-01

 Vector   58  Occ=0.000000D+00  E= 5.154838D-01

 Vector   59  Occ=0.000000D+00  E= 5.241982D-01

 Vector   60  Occ=0.000000D+00  E= 5.615758D-01

 Vector   61  Occ=0.000000D+00  E= 5.635371D-01

 Vector   62  Occ=0.000000D+00  E= 5.640168D-01

 Vector   63  Occ=0.000000D+00  E= 5.749246D-01

 Vector   64  Occ=0.000000D+00  E= 5.750702D-01

 Vector   65  Occ=0.000000D+00  E= 6.201805D-01

 Vector   66  Occ=0.000000D+00  E= 6.553282D-01

 Vector   67  Occ=0.000000D+00  E= 7.000764D-01

 Vector   68  Occ=0.000000D+00  E= 7.005352D-01

 Vector   69  Occ=0.000000D+00  E= 7.394606D-01

 Vector   70  Occ=0.000000D+00  E= 7.531807D-01

 Vector   71  Occ=0.000000D+00  E= 7.533731D-01

 Vector   72  Occ=0.000000D+00  E= 7.982952D-01

 Vector   73  Occ=0.000000D+00  E= 8.270474D-01

 Vector   74  Occ=0.000000D+00  E= 8.271285D-01

 Vector   75  Occ=0.000000D+00  E= 9.775856D-01

 Vector   76  Occ=0.000000D+00  E= 1.028457D+00

 Vector   77  Occ=0.000000D+00  E= 1.028468D+00

 Vector   78  Occ=0.000000D+00  E= 1.111735D+00

 Vector   79  Occ=0.000000D+00  E= 1.111797D+00

 Vector   80  Occ=0.000000D+00  E= 1.128887D+00

 Vector   81  Occ=0.000000D+00  E= 1.206970D+00

 Vector   82  Occ=0.000000D+00  E= 1.218302D+00

 Vector   83  Occ=0.000000D+00  E= 1.218350D+00

 Vector   84  Occ=0.000000D+00  E= 1.253963D+00

 Vector   85  Occ=0.000000D+00  E= 1.253986D+00

 Vector   86  Occ=0.000000D+00  E= 1.267187D+00

 Vector   87  Occ=0.000000D+00  E= 1.302738D+00

 Vector   88  Occ=0.000000D+00  E= 1.303668D+00

 Vector   89  Occ=0.000000D+00  E= 1.327776D+00

 Vector   90  Occ=0.000000D+00  E= 1.454866D+00

 Vector   91  Occ=0.000000D+00  E= 1.632831D+00

 Vector   92  Occ=0.000000D+00  E= 1.695259D+00

 Vector   93  Occ=0.000000D+00  E= 1.695918D+00

 Vector   94  Occ=0.000000D+00  E= 1.769752D+00

 Vector   95  Occ=0.000000D+00  E= 1.915844D+00

 Vector   96  Occ=0.000000D+00  E= 1.925432D+00

 Vector   97  Occ=0.000000D+00  E= 1.925644D+00

 Vector   98  Occ=0.000000D+00  E= 2.160458D+00

 Vector   99  Occ=0.000000D+00  E= 2.206948D+00

 Vector  100  Occ=0.000000D+00  E= 2.207636D+00

 Vector  101  Occ=0.000000D+00  E= 2.370164D+00

 Vector  102  Occ=0.000000D+00  E= 2.619438D+00

 Vector  103  Occ=0.000000D+00  E= 2.619867D+00

 Vector  104  Occ=0.000000D+00  E= 2.942432D+00

 Vector  105  Occ=0.000000D+00  E= 3.135877D+00

 Vector  106  Occ=0.000000D+00  E= 3.136213D+00

 Vector  107  Occ=0.000000D+00  E= 4.195244D+00

 Vector  108  Occ=0.000000D+00  E= 5.396594D+00

 Vector  109  Occ=0.000000D+00  E= 1.717254D+01

 Vector  110  Occ=0.000000D+00  E= 1.898218D+01

 Vector  111  Occ=0.000000D+00  E= 1.898225D+01

 Vector  112  Occ=0.000000D+00  E= 1.957463D+01

 Vector  113  Occ=0.000000D+00  E= 6.125408D+01

     Multipole analysis of the density
     ---------------------------------

     L   x y z        total         alpha         beta         nuclear
     -   - - -        -----         -----         ----         -------
     0   0 0 0     -1.000000    -26.000000    -26.000000     51.000000

     1   1 0 0      0.000871     -0.277603     -0.277603      0.556076
     1   0 1 0     -5.015541    -41.111634    -41.111634     77.207727
     1   0 0 1      0.000332      0.004595      0.004595     -0.008858

     2   2 0 0    -39.564782    -22.729497    -22.729497      5.894212
     2   1 1 0      0.050546      0.599717      0.599717     -1.148888
     2   1 0 1     -0.000028     -0.000140     -0.000140      0.000252
     2   0 2 0    -89.006891   -604.302627   -604.302627   1119.598364
     2   0 1 1      0.001848      0.013410      0.013410     -0.024971

         Total DFT energy =   -797.859845981352
@    5    -797.85984598  8.2D-08  0.00004  0.00002  0.00060  0.00138     77.3
@    5    -797.85984598  8.2D-08  0.00004  0.00002  0.00060  0.00138     77.3

 Output coordinates in angstroms (scale by  1.889725989 to convert to a.u.)

  No.       Tag          Charge          X              Y              Z
 ---- ---------------- ---------- -------------- -------------- --------------
    1 I                   53.0000     0.00891508    -1.36966173    -0.00009725
    2 Cl                  17.0000    -0.00171797     3.89266663    -0.00016041
    3 C                    6.0000     0.01104817     0.89269380     0.00004266
    4 H                    1.0000     0.47213198     1.18822088    -0.94140132
    5 H                    1.0000    -1.03409036     1.19059461     0.07170131
    6 H                    1.0000     0.59626071     1.18780486     0.86991495

 Total times  cpu:       77.2s     wall:       77.3s
