============================== echo of input deck ==============================
echo

start molecule

title "Title"
charge 0

geometry units angstroms print xyz autosym
Cl      -1.2728571670      2.0071196140     -0.0611253870
C       -0.6838721345      0.3444053855      0.0420583034
H        0.4083029377      0.3518389687      0.0415963364
H       -1.0514434448     -0.1078976286      0.9657550612
H       -1.0514444869     -0.2186321560     -0.8186285204
end

basis
  * library def2-svpd
end

dft
xc b3lyp
mult 1
end

driver
default
maxiter 99
xyz CH3Cl_GS
end

task dft optimize
================================================================================

         Total DFT energy =     -499.968772222660
@ Step       Energy      Delta E   Gmax     Grms     Xrms     Xmax   Walltime
@ ---- ---------------- -------- -------- -------- -------- -------- --------
@    0    -499.96877222  0.0D+00  0.01312  0.00442  0.00000  0.00000      3.0
         Total DFT energy =     -499.969129139163
         Total DFT energy =     -499.969165770372
@    1    -499.96916577 -3.9D-04  0.00149  0.00101  0.01309  0.04133      6.6
         Total DFT energy =     -499.969212288109
         Total DFT energy =     -499.969221070158

 Vector   71  Occ=0.000000D+00  E= 2.751578D+00  Symmetry=a1

 Vector   72  Occ=0.000000D+00  E= 2.986891D+00  Symmetry=e

 Vector   73  Occ=0.000000D+00  E= 2.986891D+00  Symmetry=e

 Vector   74  Occ=0.000000D+00  E= 3.952710D+00  Symmetry=a1

 Vector   75  Occ=0.000000D+00  E= 5.210693D+00  Symmetry=a1

@    2    -499.96922107 -5.5D-05  0.00023  0.00014  0.00508  0.01612     10.0
         Total DFT energy =     -499.969221499830

                       DFT Final Molecular Orbital Analysis
                       ------------------------------------

 Vector    1  Occ=2.000000D+00  E=-1.015375D+02  Symmetry=a1

 Vector    2  Occ=2.000000D+00  E=-1.025938D+01  Symmetry=a1

 Vector    3  Occ=2.000000D+00  E=-9.468213D+00  Symmetry=a1

 Vector    4  Occ=2.000000D+00  E=-7.238543D+00  Symmetry=a1

 Vector    5  Occ=2.000000D+00  E=-7.228490D+00  Symmetry=e

 Vector    6  Occ=2.000000D+00  E=-7.228490D+00  Symmetry=e

 Vector    7  Occ=2.000000D+00  E=-8.541627D-01  Symmetry=a1

 Vector    8  Occ=2.000000D+00  E=-6.784151D-01  Symmetry=a1

 Vector    9  Occ=2.000000D+00  E=-4.551418D-01  Symmetry=e

 Vector   10  Occ=2.000000D+00  E=-4.551418D-01  Symmetry=e

 Vector   11  Occ=2.000000D+00  E=-4.198298D-01  Symmetry=a1

 Vector   12  Occ=2.000000D+00  E=-3.045054D-01  Symmetry=e

 Vector   13  Occ=2.000000D+00  E=-3.045054D-01  Symmetry=e

 Vector   14  Occ=0.000000D+00  E=-3.303737D-03  Symmetry=a1

 Vector   15  Occ=0.000000D+00  E= 1.548194D-02  Symmetry=a1

 Vector   16  Occ=0.000000D+00  E= 6.721725D-02  Symmetry=e

 Vector   17  Occ=0.000000D+00  E= 6.721725D-02  Symmetry=e

 Vector   18  Occ=0.000000D+00  E= 8.464752D-02  Symmetry=a1

 Vector   19  Occ=0.000000D+00  E= 8.884716D-02  Symmetry=a1

 Vector   20  Occ=0.000000D+00  E= 1.155783D-01  Symmetry=e

 Vector   21  Occ=0.000000D+00  E= 1.155783D-01  Symmetry=e

 Vector   22  Occ=0.000000D+00  E= 1.502571D-01  Symmetry=e

 Vector   23  Occ=0.000000D+00  E= 1.502571D-01  Symmetry=e

 Vector   24  Occ=0.000000D+00  E= 2.085832D-01  Symmetry=a1

 Vector   25  Occ=0.000000D+00  E= 2.127675D-01  Symmetry=e

 Vector   26  Occ=0.000000D+00  E= 2.127675D-01  Symmetry=e

 Vector   27  Occ=0.000000D+00  E= 2.583939D-01  Symmetry=e

 Vector   28  Occ=0.000000D+00  E= 2.583939D-01  Symmetry=e

 Vector   29  Occ=0.000000D+00  E= 2.858055D-01  Symmetry=a1

 Vector   30  Occ=0.000000D+00  E= 3.136593D-01  Symmetry=a1

 Vector   31  Occ=0.000000D+00  E= 3.355969D-01  Symmetry=a2

 Vector   32  Occ=0.000000D+00  E= 3.420096D-01  Symmetry=e

 Vector   33  Occ=0.000000D+00  E= 3.420096D-01  Symmetry=e

 Vector   34  Occ=0.000000D+00  E= 3.574256D-01  Symmetry=a1

 Vector   35  Occ=0.000000D+00  E= 3.787554D-01  Symmetry=a1

 Vector   36  Occ=0.000000D+00  E= 3.877914D-01  Symmetry=e

 Vector   37  Occ=0.000000D+00  E= 3.877914D-01  Symmetry=e

 Vector   38  Occ=0.000000D+00  E= 4.192669D-01  Symmetry=a1

 Vector   39  Occ=0.000000D+00  E= 4.377563D-01  Symmetry=e

 Vector   40  Occ=0.000000D+00  E= 4.377563D-01  Symmetry=e

 Vector   41  Occ=0.000000D+00  E= 4.717341D-01  Symmetry=e

 Vector   42  Occ=0.000000D+00  E= 4.717341D-01  Symmetry=e

 Vector   43  Occ=0.000000D+00  E= 5.186385D-01  Symmetry=a1

 Vector   44  Occ=0.000000D+00  E= 8.136096D-01  Symmetry=e

 Vector   45  Occ=0.000000D+00  E= 8.136096D-01  Symmetry=e

 Vector   46  Occ=0.000000D+00  E= 8.222683D-01  Symmetry=a1

 Vector   47  Occ=0.000000D+00  E= 8.478950D-01  Symmetry=e

 Vector   48  Occ=0.000000D+00  E= 8.478950D-01  Symmetry=e

 Vector   49  Occ=0.000000D+00  E= 9.297446D-01  Symmetry=a1

 Vector   50  Occ=0.000000D+00  E= 9.702750D-01  Symmetry=e

 Vector   51  Occ=0.000000D+00  E= 9.702750D-01  Symmetry=e

 Vector   52  Occ=0.000000D+00  E= 9.807973D-01  Symmetry=a1

 Vector   53  Occ=0.000000D+00  E= 1.093145D+00  Symmetry=a1

 Vector   54  Occ=0.000000D+00  E= 1.109801D+00  Symmetry=e

 Vector   55  Occ=0.000000D+00  E= 1.109801D+00  Symmetry=e

 Vector   56  Occ=0.000000D+00  E= 1.246279D+00  Symmetry=e

 Vector   57  Occ=0.000000D+00  E= 1.246279D+00  Symmetry=e

 Vector   58  Occ=0.000000D+00  E= 1.251473D+00  Symmetry=a1

 Vector   59  Occ=0.000000D+00  E= 1.513089D+00  Symmetry=a1

 Vector   60  Occ=0.000000D+00  E= 1.517983D+00  Symmetry=e

 Vector   61  Occ=0.000000D+00  E= 1.517983D+00  Symmetry=e

 Vector   62  Occ=0.000000D+00  E= 1.626100D+00  Symmetry=a2

 Vector   63  Occ=0.000000D+00  E= 1.827262D+00  Symmetry=e

 Vector   64  Occ=0.000000D+00  E= 1.827262D+00  Symmetry=e

 Vector   65  Occ=0.000000D+00  E= 2.000964D+00  Symmetry=e

 Vector   66  Occ=0.000000D+00  E= 2.000964D+00  Symmetry=e

 Vector   67  Occ=0.000000D+00  E= 2.073327D+00  Symmetry=a1

 Vector   68  Occ=0.000000D+00  E= 2.234450D+00  Symmetry=a1

 Vector   69  Occ=0.000000D+00  E= 2.464534D+00  Symmetry=e

 Vector   70  Occ=0.000000D+00  E= 2.464534D+00  Symmetry=e

 Vector   71  Occ=0.000000D+00  E= 2.751483D+00  Symmetry=a1

 Vector   72  Occ=0.000000D+00  E= 2.986250D+00  Symmetry=e

 Vector   73  Occ=0.000000D+00  E= 2.986250D+00  Symmetry=e

 Vector   74  Occ=0.000000D+00  E= 3.952754D+00  Symmetry=a1

 Vector   75  Occ=0.000000D+00  E= 5.210665D+00  Symmetry=a1

     Multipole analysis of the density
     ---------------------------------

     L   x y z        total         alpha         beta         nuclear
     -   - - -        -----         -----         ----         -------
     0   0 0 0     -0.000000    -13.000000    -13.000000     26.000000

     1   1 0 0      0.000000      0.000000      0.000000      0.000000
     1   0 1 0      0.000000      0.000000      0.000000      0.000000
     1   0 0 1     -0.786008     -0.627631     -0.627631      0.469253

     2   2 0 0    -15.034433    -10.413283    -10.413283      5.792133
     2   1 1 0      0.000000     -0.000000     -0.000000      0.000000
     2   1 0 1      0.000000      0.000000      0.000000      0.000000
     2   0 2 0    -15.034433    -10.413283    -10.413283      5.792133
     2   0 1 1     -0.000000     -0.000000     -0.000000     -0.000000

         Total DFT energy =   -499.969221499830
@    3    -499.96922150 -4.3D-07  0.00002  0.00001  0.00056  0.00110     12.0
@    3    -499.96922150 -4.3D-07  0.00002  0.00001  0.00056  0.00110     12.0

 Output coordinates in angstroms (scale by  1.889725989 to convert to a.u.)

  No.       Tag          Charge          X              Y              Z
 ---- ---------------- ---------- -------------- -------------- --------------
    1 Cl                  17.0000    -0.00000000    -0.00000000     0.67284881
    2 C                    6.0000     0.00000000     0.00000000    -1.12849762
    3 H                    1.0000     0.73529193     0.73529193    -1.47304196
    4 H                    1.0000     0.26913553    -1.00442746    -1.47304196
    5 H                    1.0000    -1.00442746     0.26913553    -1.47304196

 Total times  cpu:       11.7s     wall:       12.0s
